# vtk DataFile Version 3.0
Triangulation generated with deal.II
ASCII
DATASET UNSTRUCTURED_GRID
POINTS 425 double
-0.63 -0.04 0
0 0.184111 0
-0.68 0.03 0
0 0.28 0
-0.63 -0.04 1.05
0 0.184111 1.05
-0.68 0.03 1.05
0 0.28 1.05
0.6 -0.038 0
0.663 0.043 0
0.6 -0.038 1.05
0.663 0.043 1.05
-0.3 0.145 0
-0.34 0.23 0
-0.3 0.145 1.05
-0.34 0.23 1.05
0.29 0.135 0
0.32 0.23 0
0.29 0.135 1.05
0.32 0.23 1.05
-0.655 -0.005 0
-0.63 -0.04 0.525
-0.465 0.0525 0
0 0.232056 0
0 0.184111 0.525
0.145 0.159556 0
-0.68 0.03 0.525
-0.51 0.13 0
0 0.28 0.525
0.16 0.255 0
-0.655 -0.005 1.05
-0.465 0.0525 1.05
0 0.232056 1.05
0.145 0.159556 1.05
-0.51 0.13 1.05
0.16 0.255 1.05
0.6315 0.0025 0
0.6 -0.038 0.525
0.663 0.043 0.525
0.6315 0.0025 1.05
-0.15 0.164555 0
-0.32 0.1875 0
-0.3 0.145 0.525
-0.17 0.255 0
-0.34 0.23 0.525
-0.15 0.164555 1.05
-0.32 0.1875 1.05
-0.17 0.255 1.05
0.445 0.0485 0
0.305 0.1825 0
0.29 0.135 0.525
0.4915 0.1365 0
0.32 0.23 0.525
0.445 0.0485 1.05
0.305 0.1825 1.05
0.4915 0.1365 1.05
-0.4875 0.09125 0
-0.655 -0.005 0.525
-0.465 0.0525 0.525
0.1525 0.207278 0
0 0.232056 0.525
0.145 0.159556 0.525
-0.51 0.13 0.525
0.16 0.255 0.525
-0.4875 0.09125 1.05
0.1525 0.207278 1.05
0.6315 0.0025 0.525
-0.15 0.164555 0.525
-0.16 0.209778 0
-0.32 0.1875 0.525
-0.17 0.255 0.525
-0.16 0.209778 1.05
0.445 0.0485 0.525
0.46825 0.0925 0
0.305 0.1825 0.525
0.4915 0.1365 0.525
0.46825 0.0925 1.05
-0.4875 0.09125 0.525
-0.16 0.209778 0.525
0.1525 0.207278 0.525
0.46825 0.0925 0.525
-0.6425 -0.0225 0
-0.6675 0.0125 0
-0.63 -0.04 0.2625
-0.63 -0.04 0.7875
-0.5475 0.00625 0
-0.3825 0.09875 0
0 0.208083 0
0 0.256028 0
0 0.184111 0.2625
0 0.184111 0.7875
0.0725 0.171833 0
0.2175 0.147278 0
-0.68 0.03 0.2625
-0.68 0.03 0.7875
-0.595 0.08 0
-0.425 0.18 0
0 0.28 0.2625
0 0.28 0.7875
0.08 0.2675 0
0.24 0.2425 0
-0.6425 -0.0225 1.05
-0.6675 0.0125 1.05
-0.5475 0.00625 1.05
-0.3825 0.09875 1.05
0 0.208083 1.05
0 0.256028 1.05
0.0725 0.171833 1.05
0.2175 0.147278 1.05
-0.595 0.08 1.05
-0.425 0.18 1.05
0.08 0.2675 1.05
0.24 0.2425 1.05
0.61575 -0.01775 0
0.64725 0.02275 0
0.6 -0.038 0.2625
0.6 -0.038 0.7875
0.663 0.043 0.2625
0.663 0.043 0.7875
0.61575 -0.01775 1.05
0.64725 0.02275 1.05
-0.225 0.154778 0
-0.075 0.174333 0
-0.31 0.16625 0
-0.33 0.20875 0
-0.3 0.145 0.2625
-0.3 0.145 0.7875
-0.255 0.2425 0
-0.085 0.2675 0
-0.34 0.23 0.2625
-0.34 0.23 0.7875
-0.225 0.154778 1.05
-0.075 0.174333 1.05
-0.31 0.16625 1.05
-0.33 0.20875 1.05
-0.255 0.2425 1.05
-0.085 0.2675 1.05
0.3675 0.09175 0
0.5225 0.00525 0
0.2975 0.15875 0
0.3125 0.20625 0
0.29 0.135 0.2625
0.29 0.135 0.7875
0.40575 0.18325 0
0.57725 0.08975 0
0.32 0.23 0.2625
0.32 0.23 0.7875
0.3675 0.09175 1.05
0.5225 0.00525 1.05
0.2975 0.15875 1.05
0.3125 0.20625 1.05
0.40575 0.18325 1.05
0.57725 0.08975 1.05
-0.47625 0.071875 0
-0.49875 0.110625 0
-0.57125 0.043125 0
-0.40375 0.139375 0
-0.655 -0.005 0.2625
-0.655 -0.005 0.7875
-0.6425 -0.0225 0.525
-0.6675 0.0125 0.525
-0.5475 0.00625 0.525
-0.3825 0.09875 0.525
-0.465 0.0525 0.2625
-0.465 0.0525 0.7875
0.14875 0.183417 0
0.15625 0.231139 0
0.07625 0.219667 0
0.22875 0.194889 0
0 0.232056 0.2625
0 0.232056 0.7875
0 0.208083 0.525
0 0.256028 0.525
0.0725 0.171833 0.525
0.2175 0.147278 0.525
0.145 0.159556 0.2625
0.145 0.159556 0.7875
-0.595 0.08 0.525
-0.425 0.18 0.525
-0.51 0.13 0.2625
-0.51 0.13 0.7875
0.08 0.2675 0.525
0.24 0.2425 0.525
0.16 0.255 0.2625
0.16 0.255 0.7875
-0.47625 0.071875 1.05
-0.49875 0.110625 1.05
-0.57125 0.043125 1.05
-0.40375 0.139375 1.05
0.14875 0.183417 1.05
0.15625 0.231139 1.05
0.07625 0.219667 1.05
0.22875 0.194889 1.05
0.6315 0.0025 0.2625
0.6315 0.0025 0.7875
0.61575 -0.01775 0.525
0.64725 0.02275 0.525
-0.225 0.154778 0.525
-0.075 0.174333 0.525
-0.15 0.164555 0.2625
-0.15 0.164555 0.7875
-0.155 0.187167 0
-0.165 0.232389 0
-0.24 0.198639 0
-0.08 0.220917 0
-0.32 0.1875 0.2625
-0.32 0.1875 0.7875
-0.31 0.16625 0.525
-0.33 0.20875 0.525
-0.255 0.2425 0.525
-0.085 0.2675 0.525
-0.17 0.255 0.2625
-0.17 0.255 0.7875
-0.155 0.187167 1.05
-0.165 0.232389 1.05
-0.24 0.198639 1.05
-0.08 0.220917 1.05
0.3675 0.09175 0.525
0.5225 0.00525 0.525
0.445 0.0485 0.2625
0.445 0.0485 0.7875
0.456625 0.0705 0
0.479875 0.1145 0
0.386625 0.1375 0
0.549875 0.0475 0
0.305 0.1825 0.2625
0.305 0.1825 0.7875
0.2975 0.15875 0.525
0.3125 0.20625 0.525
0.40575 0.18325 0.525
0.57725 0.08975 0.525
0.4915 0.1365 0.2625
0.4915 0.1365 0.7875
0.456625 0.0705 1.05
0.479875 0.1145 1.05
0.386625 0.1375 1.05
0.549875 0.0475 1.05
0.549875 0.0475 0.525
0.386625 0.1375 0.525
0.479875 0.1145 0.525
0.456625 0.0705 0.525
0.46825 0.0925 0.7875
0.46825 0.0925 0.2625
0.22875 0.194889 0.525
0.07625 0.219667 0.525
0.15625 0.231139 0.525
0.14875 0.183417 0.525
0.1525 0.207278 0.7875
0.1525 0.207278 0.2625
-0.08 0.220917 0.525
-0.24 0.198639 0.525
-0.165 0.232389 0.525
-0.155 0.187167 0.525
-0.16 0.209778 0.7875
-0.16 0.209778 0.2625
-0.40375 0.139375 0.525
-0.57125 0.043125 0.525
-0.49875 0.110625 0.525
-0.47625 0.071875 0.525
-0.4875 0.09125 0.7875
-0.4875 0.09125 0.2625
-0.559375 0.0246875 0
-0.393125 0.119063 0
-0.583125 0.0615625 0
-0.414375 0.159687 0
-0.6425 -0.0225 0.2625
-0.6675 0.0125 0.2625
-0.6425 -0.0225 0.7875
-0.6675 0.0125 0.7875
-0.5475 0.00625 0.2625
-0.5475 0.00625 0.7875
-0.3825 0.09875 0.2625
-0.3825 0.09875 0.7875
0.074375 0.19575 0
0.223125 0.171083 0
0.078125 0.243583 0
0.234375 0.218694 0
0 0.208083 0.2625
0 0.256028 0.2625
0 0.208083 0.7875
0 0.256028 0.7875
0.0725 0.171833 0.2625
0.0725 0.171833 0.7875
0.2175 0.147278 0.2625
0.2175 0.147278 0.7875
-0.595 0.08 0.2625
-0.595 0.08 0.7875
-0.425 0.18 0.2625
-0.425 0.18 0.7875
0.08 0.2675 0.2625
0.08 0.2675 0.7875
0.24 0.2425 0.2625
0.24 0.2425 0.7875
-0.559375 0.0246875 1.05
-0.393125 0.119063 1.05
-0.583125 0.0615625 1.05
-0.414375 0.159687 1.05
0.074375 0.19575 1.05
0.223125 0.171083 1.05
0.078125 0.243583 1.05
0.234375 0.218694 1.05
0.61575 -0.01775 0.2625
0.64725 0.02275 0.2625
0.61575 -0.01775 0.7875
0.64725 0.02275 0.7875
-0.225 0.154778 0.2625
-0.225 0.154778 0.7875
-0.075 0.174333 0.2625
-0.075 0.174333 0.7875
-0.2325 0.176708 0
-0.0775 0.197625 0
-0.2475 0.220569 0
-0.0825 0.244208 0
-0.31 0.16625 0.2625
-0.33 0.20875 0.2625
-0.31 0.16625 0.7875
-0.33 0.20875 0.7875
-0.255 0.2425 0.2625
-0.255 0.2425 0.7875
-0.085 0.2675 0.2625
-0.085 0.2675 0.7875
-0.2325 0.176708 1.05
-0.0775 0.197625 1.05
-0.2475 0.220569 1.05
-0.0825 0.244208 1.05
0.3675 0.09175 0.2625
0.3675 0.09175 0.7875
0.5225 0.00525 0.2625
0.5225 0.00525 0.7875
0.377062 0.114625 0
0.536187 0.026375 0
0.396188 0.160375 0
0.563563 0.068625 0
0.2975 0.15875 0.2625
0.3125 0.20625 0.2625
0.2975 0.15875 0.7875
0.3125 0.20625 0.7875
0.40575 0.18325 0.2625
0.40575 0.18325 0.7875
0.57725 0.08975 0.2625
0.57725 0.08975 0.7875
0.377062 0.114625 1.05
0.536187 0.026375 1.05
0.396188 0.160375 1.05
0.563563 0.068625 1.05
0.479875 0.1145 0.7875
0.456625 0.0705 0.7875
0.479875 0.1145 0.2625
0.456625 0.0705 0.2625
0.563563 0.068625 0.525
0.396188 0.160375 0.525
0.536188 0.026375 0.525
0.377062 0.114625 0.525
0.549875 0.0475 0.7875
0.549875 0.0475 0.2625
0.386625 0.1375 0.7875
0.386625 0.1375 0.2625
0.15625 0.231139 0.7875
0.14875 0.183417 0.7875
0.15625 0.231139 0.2625
0.14875 0.183417 0.2625
0.234375 0.218694 0.525
0.078125 0.243583 0.525
0.223125 0.171083 0.525
0.074375 0.19575 0.525
0.22875 0.194889 0.7875
0.22875 0.194889 0.2625
0.07625 0.219667 0.7875
0.07625 0.219667 0.2625
-0.165 0.232389 0.7875
-0.155 0.187167 0.7875
-0.165 0.232389 0.2625
-0.155 0.187167 0.2625
-0.0825 0.244208 0.525
-0.2475 0.220569 0.525
-0.0775 0.197625 0.525
-0.2325 0.176708 0.525
-0.08 0.220917 0.7875
-0.08 0.220917 0.2625
-0.24 0.198639 0.7875
-0.24 0.198639 0.2625
-0.49875 0.110625 0.7875
-0.47625 0.071875 0.7875
-0.49875 0.110625 0.2625
-0.47625 0.071875 0.2625
-0.414375 0.159687 0.525
-0.583125 0.0615625 0.525
-0.393125 0.119063 0.525
-0.559375 0.0246875 0.525
-0.40375 0.139375 0.7875
-0.40375 0.139375 0.2625
-0.57125 0.043125 0.7875
-0.57125 0.043125 0.2625
-0.559375 0.0246875 0.2625
-0.583125 0.0615625 0.2625
-0.559375 0.0246875 0.7875
-0.583125 0.0615625 0.7875
-0.393125 0.119063 0.2625
-0.414375 0.159687 0.2625
-0.393125 0.119063 0.7875
-0.414375 0.159687 0.7875
-0.2325 0.176708 0.2625
-0.2475 0.220569 0.2625
-0.2325 0.176708 0.7875
-0.2475 0.220569 0.7875
-0.0775 0.197625 0.2625
-0.0825 0.244208 0.2625
-0.0775 0.197625 0.7875
-0.0825 0.244208 0.7875
0.074375 0.19575 0.2625
0.078125 0.243583 0.2625
0.074375 0.19575 0.7875
0.078125 0.243583 0.7875
0.223125 0.171083 0.2625
0.234375 0.218694 0.2625
0.223125 0.171083 0.7875
0.234375 0.218694 0.7875
0.377062 0.114625 0.2625
0.396188 0.160375 0.2625
0.377063 0.114625 0.7875
0.396188 0.160375 0.7875
0.536188 0.026375 0.2625
0.563562 0.068625 0.2625
0.536188 0.026375 0.7875
0.563562 0.068625 0.7875

CELLS 256 2304
8 0 81 265 83 85 261 393 269
8 81 20 157 265 261 155 392 393
8 83 265 159 21 269 393 388 161
8 265 157 57 159 393 392 256 388
8 85 261 393 269 22 153 384 163
8 261 155 392 393 153 56 260 384
8 269 393 388 161 163 384 258 58
8 393 392 256 388 384 260 77 258
8 20 82 266 157 155 263 394 392
8 82 2 93 266 263 95 285 394
8 157 266 160 57 392 394 386 256
8 266 93 26 160 394 285 177 386
8 155 263 394 392 56 154 383 260
8 263 95 285 394 154 27 179 383
8 392 394 386 256 260 383 257 77
8 394 285 177 386 383 179 62 257
8 21 159 267 84 161 388 395 270
8 159 57 158 267 388 256 391 395
8 84 267 101 4 270 395 293 103
8 267 158 30 101 395 391 187 293
8 161 388 395 270 58 258 382 164
8 388 256 391 395 258 77 259 382
8 270 395 293 103 164 382 185 31
8 395 391 187 293 382 259 64 185
8 57 160 268 158 256 386 396 391
8 160 26 94 268 386 177 286 396
8 158 268 102 30 391 396 295 187
8 268 94 6 102 396 286 109 295
8 256 386 396 391 77 257 381 259
8 386 177 286 396 257 62 180 381
8 391 396 295 187 259 381 186 64
8 396 286 109 295 381 180 34 186
8 22 153 384 163 86 262 397 271
8 153 56 260 384 262 156 390 397
8 163 384 258 58 271 397 387 162
8 384 260 77 258 397 390 255 387
8 86 262 397 271 12 123 313 125
8 262 156 390 397 123 41 205 313
8 271 397 387 162 125 313 207 42
8 397 390 255 387 313 205 69 207
8 56 154 383 260 156 264 398 390
8 154 27 179 383 264 96 287 398
8 260 383 257 77 390 398 385 255
8 383 179 62 257 398 287 178 385
8 156 264 398 390 41 124 314 205
8 264 96 287 398 124 13 129 314
8 390 398 385 255 205 314 208 69
8 398 287 178 385 314 129 44 208
8 58 258 382 164 162 387 399 272
8 258 77 259 382 387 255 389 399
8 164 382 185 31 272 399 294 104
8 382 259 64 185 399 389 188 294
8 162 387 399 272 42 207 315 126
8 387 255 389 399 207 69 206 315
8 272 399 294 104 126 315 133 14
8 399 389 188 294 315 206 46 133
8 77 257 381 259 255 385 400 389
8 257 62 180 381 385 178 288 400
8 259 381 186 64 389 400 296 188
8 381 180 34 186 400 288 110 296
8 255 385 400 389 69 208 316 206
8 385 178 288 400 208 44 130 316
8 389 400 296 188 206 316 134 46
8 400 288 110 296 316 130 15 134
8 12 123 313 125 121 309 401 305
8 123 41 205 313 309 203 380 401
8 125 313 207 42 305 401 376 197
8 313 205 69 207 401 380 250 376
8 121 309 401 305 40 201 372 199
8 309 203 380 401 201 68 254 372
8 305 401 376 197 199 372 252 67
8 401 380 250 376 372 254 78 252
8 41 124 314 205 203 311 402 380
8 124 13 129 314 311 127 317 402
8 205 314 208 69 380 402 374 250
8 314 129 44 208 402 317 209 374
8 203 311 402 380 68 202 371 254
8 311 127 317 402 202 43 211 371
8 380 402 374 250 254 371 251 78
8 402 317 209 374 371 211 70 251
8 42 207 315 126 197 376 403 306
8 207 69 206 315 376 250 379 403
8 126 315 133 14 306 403 321 131
8 315 206 46 133 403 379 215 321
8 197 376 403 306 67 252 370 200
8 376 250 379 403 252 78 253 370
8 306 403 321 131 200 370 213 45
8 403 379 215 321 370 253 71 213
8 69 208 316 206 250 374 404 379
8 208 44 130 316 374 209 318 404
8 206 316 134 46 379 404 323 215
8 316 130 15 134 404 318 135 323
8 250 374 404 379 78 251 369 253
8 374 209 318 404 251 70 212 369
8 379 404 323 215 253 369 214 71
8 404 318 135 323 369 212 47 214
8 40 201 372 199 122 310 405 307
8 201 68 254 372 310 204 378 405
8 199 372 252 67 307 405 375 198
8 372 254 78 252 405 378 249 375
8 122 310 405 307 1 87 277 89
8 310 204 378 405 87 23 169 277
8 307 405 375 198 89 277 171 24
8 405 378 249 375 277 169 60 171
8 68 202 371 254 204 312 406 378
8 202 43 211 371 312 128 319 406
8 254 371 251 78 378 406 373 249
8 371 211 70 251 406 319 210 373
8 204 312 406 378 23 88 278 169
8 312 128 319 406 88 3 97 278
8 378 406 373 249 169 278 172 60
8 406 319 210 373 278 97 28 172
8 67 252 370 200 198 375 407 308
8 252 78 253 370 375 249 377 407
8 200 370 213 45 308 407 322 132
8 370 253 71 213 407 377 216 322
8 198 375 407 308 24 171 279 90
8 375 249 377 407 171 60 170 279
8 308 407 322 132 90 279 105 5
8 407 377 216 322 279 170 32 105
8 78 251 369 253 249 373 408 377
8 251 70 212 369 373 210 320 408
8 253 369 214 71 377 408 324 216
8 369 212 47 214 408 320 136 324
8 249 373 408 377 60 172 280 170
8 373 210 320 408 172 28 98 280
8 377 408 324 216 170 280 106 32
8 408 320 136 324 280 98 7 106
8 1 87 277 89 91 273 409 281
8 87 23 169 277 273 167 368 409
8 89 277 171 24 281 409 364 173
8 277 169 60 171 409 368 244 364
8 91 273 409 281 25 165 360 175
8 273 167 368 409 165 59 248 360
8 281 409 364 173 175 360 246 61
8 409 368 244 364 360 248 79 246
8 23 88 278 169 167 275 410 368
8 88 3 97 278 275 99 289 410
8 169 278 172 60 368 410 362 244
8 278 97 28 172 410 289 181 362
8 167 275 410 368 59 166 359 248
8 275 99 289 410 166 29 183 359
8 368 410 362 244 248 359 245 79
8 410 289 181 362 359 183 63 245
8 24 171 279 90 173 364 411 282
8 171 60 170 279 364 244 367 411
8 90 279 105 5 282 411 297 107
8 279 170 32 105 411 367 191 297
8 173 364 411 282 61 246 358 176
8 364 244 367 411 246 79 247 358
8 282 411 297 107 176 358 189 33
8 411 367 191 297 358 247 65 189
8 60 172 280 170 244 362 412 367
8 172 28 98 280 362 181 290 412
8 170 280 106 32 367 412 299 191
8 280 98 7 106 412 290 111 299
8 244 362 412 367 79 245 357 247
8 362 181 290 412 245 63 184 357
8 367 412 299 191 247 357 190 65
8 412 290 111 299 357 184 35 190
8 25 165 360 175 92 274 413 283
8 165 59 248 360 274 168 366 413
8 175 360 246 61 283 413 363 174
8 360 248 79 246 413 366 243 363
8 92 274 413 283 16 139 333 141
8 274 168 366 413 139 49 225 333
8 283 413 363 174 141 333 227 50
8 413 366 243 363 333 225 74 227
8 59 166 359 248 168 276 414 366
8 166 29 183 359 276 100 291 414
8 248 359 245 79 366 414 361 243
8 359 183 63 245 414 291 182 361
8 168 276 414 366 49 140 334 225
8 276 100 291 414 140 17 145 334
8 366 414 361 243 225 334 228 74
8 414 291 182 361 334 145 52 228
8 61 246 358 176 174 363 415 284
8 246 79 247 358 363 243 365 415
8 176 358 189 33 284 415 298 108
8 358 247 65 189 415 365 192 298
8 174 363 415 284 50 227 335 142
8 363 243 365 415 227 74 226 335
8 284 415 298 108 142 335 149 18
8 415 365 192 298 335 226 54 149
8 79 245 357 247 243 361 416 365
8 245 63 184 357 361 182 292 416
8 247 357 190 65 365 416 300 192
8 357 184 35 190 416 292 112 300
8 243 361 416 365 74 228 336 226
8 361 182 292 416 228 52 146 336
8 365 416 300 192 226 336 150 54
8 416 292 112 300 336 146 19 150
8 16 139 333 141 137 329 417 325
8 139 49 225 333 329 223 356 417
8 141 333 227 50 325 417 352 217
8 333 225 74 227 417 356 238 352
8 137 329 417 325 48 221 348 219
8 329 223 356 417 221 73 242 348
8 325 417 352 217 219 348 240 72
8 417 356 238 352 348 242 80 240
8 49 140 334 225 223 331 418 356
8 140 17 145 334 331 143 337 418
8 225 334 228 74 356 418 350 238
8 334 145 52 228 418 337 229 350
8 223 331 418 356 73 222 347 242
8 331 143 337 418 222 51 231 347
8 356 418 350 238 242 347 239 80
8 418 337 229 350 347 231 75 239
8 50 227 335 142 217 352 419 326
8 227 74 226 335 352 238 355 419
8 142 335 149 18 326 419 341 147
8 335 226 54 149 419 355 235 341
8 217 352 419 326 72 240 346 220
8 352 238 355 419 240 80 241 346
8 326 419 341 147 220 346 233 53
8 419 355 235 341 346 241 76 233
8 74 228 336 226 238 350 420 355
8 228 52 146 336 350 229 338 420
8 226 336 150 54 355 420 343 235
8 336 146 19 150 420 338 151 343
8 238 350 420 355 80 239 345 241
8 350 229 338 420 239 75 232 345
8 355 420 343 235 241 345 234 76
8 420 338 151 343 345 232 55 234
8 48 221 348 219 138 330 421 327
8 221 73 242 348 330 224 354 421
8 219 348 240 72 327 421 351 218
8 348 242 80 240 421 354 237 351
8 138 330 421 327 8 113 301 115
8 330 224 354 421 113 36 193 301
8 327 421 351 218 115 301 195 37
8 421 354 237 351 301 193 66 195
8 73 222 347 242 224 332 422 354
8 222 51 231 347 332 144 339 422
8 242 347 239 80 354 422 349 237
8 347 231 75 239 422 339 230 349
8 224 332 422 354 36 114 302 193
8 332 144 339 422 114 9 117 302
8 354 422 349 237 193 302 196 66
8 422 339 230 349 302 117 38 196
8 72 240 346 220 218 351 423 328
8 240 80 241 346 351 237 353 423
8 220 346 233 53 328 423 342 148
8 346 241 76 233 423 353 236 342
8 218 351 423 328 37 195 303 116
8 351 237 353 423 195 66 194 303
8 328 423 342 148 116 303 119 10
8 423 353 236 342 303 194 39 119
8 80 239 345 241 237 349 424 353
8 239 75 232 345 349 230 340 424
8 241 345 234 76 353 424 344 236
8 345 232 55 234 424 340 152 344
8 237 349 424 353 66 196 304 194
8 349 230 340 424 196 38 118 304
8 353 424 344 236 194 304 120 39
8 424 340 152 344 304 118 11 120

CELL_TYPES 256
12 12 12 12 12 12 12 12 12 12 12 12 12 12 12 12 12 12 12 12 12 12 12 12 12 12 12 12 12 12 12 12 12 12 12 12 12 12 12 12 12 12 12 12 12 12 12 12 12 12 12 12 12 12 12 12 12 12 12 12 12 12 12 12 12 12 12 12 12 12 12 12 12 12 12 12 12 12 12 12 12 12 12 12 12 12 12 12 12 12 12 12 12 12 12 12 12 12 12 12 12 12 12 12 12 12 12 12 12 12 12 12 12 12 12 12 12 12 12 12 12 12 12 12 12 12 12 12 12 12 12 12 12 12 12 12 12 12 12 12 12 12 12 12 12 12 12 12 12 12 12 12 12 12 12 12 12 12 12 12 12 12 12 12 12 12 12 12 12 12 12 12 12 12 12 12 12 12 12 12 12 12 12 12 12 12 12 12 12 12 12 12 12 12 12 12 12 12 12 12 12 12 12 12 12 12 12 12 12 12 12 12 12 12 12 12 12 12 12 12 12 12 12 12 12 12 12 12 12 12 12 12 12 12 12 12 12 12 12 12 12 12 12 12 12 12 12 12 12 12 12 12 12 12 12 12 



CELL_DATA 256
SCALARS MaterialID int 1
LOOKUP_TABLE default
0 0 0 0 0 0 0 0 0 0 0 0 0 0 0 0 0 0 0 0 0 0 0 0 0 0 0 0 0 0 0 0 0 0 0 0 0 0 0 0 0 0 0 0 0 0 0 0 0 0 0 0 0 0 0 0 0 0 0 0 0 0 0 0 0 0 0 0 0 0 0 0 0 0 0 0 0 0 0 0 0 0 0 0 0 0 0 0 0 0 0 0 0 0 0 0 0 0 0 0 0 0 0 0 0 0 0 0 0 0 0 0 0 0 0 0 0 0 0 0 0 0 0 0 0 0 0 0 0 0 0 0 0 0 0 0 0 0 0 0 0 0 0 0 0 0 0 0 0 0 0 0 0 0 0 0 0 0 0 0 0 0 0 0 0 0 0 0 0 0 0 0 0 0 0 0 0 0 0 0 0 0 0 0 0 0 0 0 0 0 0 0 0 0 0 0 0 0 0 0 0 0 0 0 0 0 0 0 0 0 0 0 0 0 0 0 0 0 0 0 0 0 0 0 0 0 0 0 0 0 0 0 0 0 0 0 0 0 0 0 0 0 0 0 0 0 0 0 0 0 0 0 0 0 0 0 



SCALARS ManifoldID int 1
LOOKUP_TABLE default
-1 -1 -1 -1 -1 -1 -1 -1 -1 -1 -1 -1 -1 -1 -1 -1 -1 -1 -1 -1 -1 -1 -1 -1 -1 -1 -1 -1 -1 -1 -1 -1 -1 -1 -1 -1 -1 -1 -1 -1 -1 -1 -1 -1 -1 -1 -1 -1 -1 -1 -1 -1 -1 -1 -1 -1 -1 -1 -1 -1 -1 -1 -1 -1 -1 -1 -1 -1 -1 -1 -1 -1 -1 -1 -1 -1 -1 -1 -1 -1 -1 -1 -1 -1 -1 -1 -1 -1 -1 -1 -1 -1 -1 -1 -1 -1 -1 -1 -1 -1 -1 -1 -1 -1 -1 -1 -1 -1 -1 -1 -1 -1 -1 -1 -1 -1 -1 -1 -1 -1 -1 -1 -1 -1 -1 -1 -1 -1 -1 -1 -1 -1 -1 -1 -1 -1 -1 -1 -1 -1 -1 -1 -1 -1 -1 -1 -1 -1 -1 -1 -1 -1 -1 -1 -1 -1 -1 -1 -1 -1 -1 -1 -1 -1 -1 -1 -1 -1 -1 -1 -1 -1 -1 -1 -1 -1 -1 -1 -1 -1 -1 -1 -1 -1 -1 -1 -1 -1 -1 -1 -1 -1 -1 -1 -1 -1 -1 -1 -1 -1 -1 -1 -1 -1 -1 -1 -1 -1 -1 -1 -1 -1 -1 -1 -1 -1 -1 -1 -1 -1 -1 -1 -1 -1 -1 -1 -1 -1 -1 -1 -1 -1 -1 -1 -1 -1 -1 -1 -1 -1 -1 -1 -1 -1 -1 -1 -1 -1 -1 -1 -1 -1 -1 -1 -1 -1 


